10
Energy = -229.0300842480
H     0.4483918    0.0110995   -2.4956896 
O    -0.1960669   -0.0177922   -1.7798977 
C     0.5169355    0.0178727   -0.5497916 
H     1.1357735    0.9169927   -0.4672970 
H     1.1623969   -0.8585945   -0.4325874 
C    -0.5169354    0.0178750    0.5497915 
H    -1.1357685    0.9169986    0.4672981 
H    -1.1624016   -0.8585885    0.4325861 
O     0.1960667   -0.0177946    1.7798976 
H    -0.4483938    0.0110582    2.4956895 
