10
Energy = -230.2254800486
H     0.3991754   -0.0379453   -2.5149691 
O    -0.1960637   -0.1540657   -1.7678661 
C     0.5053985    0.1633258   -0.5676270 
H     1.0071800    1.1343412   -0.6433271 
H     1.2620810   -0.5970764   -0.3418102 
C    -0.5053984    0.1633258    0.5676270 
H    -1.0071799    1.1343412    0.6433271 
H    -1.2620809   -0.5970764    0.3418101 
O     0.1960637   -0.1540657    1.7678661 
H    -0.3991755   -0.0379452    2.5149690 
