10
Energy = -230.2178331067
H     0.0479681   -0.5686128   -2.2495699 
O    -0.0947043   -0.6165652   -1.2988859 
C     0.1482367    0.6689600   -0.7509521 
H    -0.4692146    1.4441800   -1.2220956 
H     1.2010778    0.9396117   -0.9091820 
C    -0.1482368    0.6689600    0.7509520 
H     0.4692145    1.4441800    1.2220956 
H    -1.2010778    0.9396117    0.9091820 
O     0.0947043   -0.6165652    1.2988859 
H    -0.0479694   -0.5686131    2.2495697 
