10
Energy = -230.2253845755
H     0.4222920   -0.6512417   -2.2399816 
O    -0.2022193   -0.4493081   -1.5362730 
C     0.3839889    0.5042431   -0.6523771 
H     0.3386572    1.5064853   -1.0982064 
H     1.4318103    0.2680098   -0.4387133 
C    -0.3839886    0.5042433    0.6523772 
H    -0.3386565    1.5064855    1.0982065 
H    -1.4318101    0.2680105    0.4387134 
O     0.2022191   -0.4493081    1.5362730 
H    -0.4222915   -0.6512399    2.2399829 
