10
Energy = -230.2269407117
H     0.4309422    0.0122324   -2.5141989 
O    -0.1957661   -0.0525849   -1.7872150 
C     0.5144139    0.0541930   -0.5566465 
H     1.1086601    0.9741765   -0.5135720 
H     1.1898723   -0.7970625   -0.4104823 
C    -0.5144137    0.0541936    0.5566463 
H    -1.1086585    0.9741781    0.5135719 
H    -1.1898735   -0.7970607    0.4104812 
O     0.1957658   -0.0525860    1.7872149 
H    -0.4309443    0.0122206    2.5141983 
