10
Energy = -230.2250587796
H     0.4195834   -0.6296131   -2.2603498 
O    -0.2028258   -0.4377401   -1.5518296 
C     0.3931920    0.4910355   -0.6476259 
H     0.3773143    1.4987291   -1.0826237 
H     1.4319970    0.2279214   -0.4222693 
C    -0.3931919    0.4910356    0.6476260 
H    -0.3773138    1.4987293    1.0826237 
H    -1.4319969    0.2279218    0.4222694 
O     0.2028257   -0.4377402    1.5518296 
H    -0.4195831   -0.6296120    2.2603505 
