10
Energy = -230.2221125198
H     0.1411535   -0.5678150   -2.2545558 
O    -0.1366265   -0.5906871   -1.3334236 
C     0.2163540    0.6427894   -0.7277898 
H    -0.2596653    1.4996047   -1.2230078 
H     1.3045628    0.7846572   -0.7775696 
C    -0.2163544    0.6427893    0.7277897 
H     0.2596651    1.4996045    1.2230079 
H    -1.3045632    0.7846573    0.7775695 
O     0.1366260   -0.5906873    1.3334233 
H    -0.1411558   -0.5678160    2.2545551 
