10
Energy = -230.2259177693
H     0.4250084   -0.6844845   -2.2042975 
O    -0.2003588   -0.4716995   -1.5048566 
C     0.3645778    0.5292832   -0.6622098 
H     0.2608666    1.5189160   -1.1268245 
H     1.4281810    0.3456771   -0.4748861 
C    -0.3645775    0.5292835    0.6622100 
H    -0.2608655    1.5189163    1.1268246 
H    -1.4281807    0.3456781    0.4748864 
O     0.2003586   -0.4716996    1.5048566 
H    -0.4250072   -0.6844814    2.2042999 
