10
Energy = -229.0142628114
H     0.0033995   -0.5756855   -2.2226610 
O    -0.0298402   -0.6365664   -1.2607046 
C     0.0455907    0.6901359   -0.7688431 
H    -0.7627336    1.3092440   -1.1722066 
H     0.9942026    1.1468166   -1.0723880 
C    -0.0455908    0.6901359    0.7688431 
H     0.7627336    1.3092439    1.1722066 
H    -0.9942026    1.1468167    1.0723881 
O     0.0298399   -0.6365664    1.2607046 
H    -0.0033981   -0.5756854    2.2226610 
