10
Energy = -230.2261845343
H     0.3935470   -0.6808637   -2.1879750 
O    -0.1917276   -0.5142609   -1.4430301 
C     0.3224067    0.5725130   -0.6826923 
H     0.1032558    1.5313721   -1.1721355 
H     1.4086919    0.4904166   -0.5581760 
C    -0.3224065    0.5725132    0.6826924 
H    -0.1032553    1.5313721    1.1721356 
H    -1.4086917    0.4904171    0.5581762 
O     0.1917274   -0.5142611    1.4430301 
H    -0.3935453   -0.6808614    2.1879770 
