10
Energy = -229.0244169039
H     0.3948531   -0.2490565   -2.4567906 
O    -0.2012366   -0.2787292   -1.6992374 
C     0.4782188    0.3056622   -0.5911072 
H     0.8113630    1.3196565   -0.8321911 
H     1.3516166   -0.2887563   -0.3063219 
C    -0.4782179    0.3056636    0.5911070 
H    -0.8113586    1.3196590    0.8321911 
H    -1.3516178   -0.2887518    0.3063216 
O     0.2012356   -0.2787300    1.6992372 
H    -0.3948566   -0.2490617    2.4567886 
