10
Energy = -229.0275966074
H     0.3039088   -0.6094137   -2.2133315 
O    -0.1791662   -0.5456990   -1.3818555 
C     0.2926073    0.6005645   -0.6932251 
H    -0.0088187    1.5269351   -1.1976360 
H     1.3856834    0.5878987   -0.6138206 
C    -0.2926075    0.6005644    0.6932250 
H     0.0088179    1.5269353    1.1976359 
H    -1.3856836    0.5878980    0.6138202 
O     0.1791666   -0.5456986    1.3818558 
H    -0.3039130   -0.6094171    2.2133287 
