10
Energy = -230.2228539269
H     0.1656151   -0.5710921   -2.2537644 
O    -0.1442283   -0.5841347   -1.3427599 
C     0.2292318    0.6363379   -0.7228297 
H    -0.2185454    1.5071189   -1.2203532 
H     1.3210663    0.7532055   -0.7514259 
C    -0.2292320    0.6363384    0.7228291 
H     0.2185451    1.5071199    1.2203520 
H    -1.3210665    0.7532058    0.7514252 
O     0.1442284   -0.5841336    1.3427602 
H    -0.1656168   -0.5710912    2.2537640 
