10
Energy = -230.2231719884
H     0.3988071   -0.4573838   -2.3843874 
O    -0.2034593   -0.3627369   -1.6391162 
C     0.4412262    0.4037501   -0.6209819 
H     0.6039120    1.4297135   -0.9722122 
H     1.4103436   -0.0261757   -0.3479386 
C    -0.4412257    0.4037507    0.6209820 
H    -0.6039102    1.4297142    0.9722123 
H    -1.4103437   -0.0261739    0.3479387 
O     0.2034589   -0.3627372    1.6391162 
H    -0.3988075   -0.4573831    2.3843876 
