10
Energy = -230.2236963992
H     0.4057884   -0.5207431   -2.3450462 
O    -0.2037301   -0.3888069   -1.6115682 
C     0.4265843    0.4342480   -0.6295984 
H     0.5298153    1.4570968   -1.0121779 
H     1.4218042    0.0604976   -0.3680313 
C    -0.4265842    0.4342480    0.6295984 
H    -0.5298151    1.4570969    1.0121779 
H    -1.4218042    0.0604978    0.3680313 
O     0.2037301   -0.3888069    1.6115682 
H    -0.4057884   -0.5207429    2.3450463 
