10
Energy = -229.0243871857
H     0.4090432   -0.4534797   -2.3666395 
O    -0.2045939   -0.3630256   -1.6281224 
C     0.4431212    0.4043621   -0.6163088 
H     0.6094919    1.4270390   -0.9703620 
H     1.4072854   -0.0297975   -0.3365454 
C    -0.4431211    0.4043622    0.6163088 
H    -0.6094916    1.4270392    0.9703620 
H    -1.4072854   -0.0297972    0.3365454 
O     0.2045938   -0.3630257    1.6281224 
H    -0.4090431   -0.4534791    2.3666397 
