10
Energy = -230.2196087209
H     0.0792227   -0.5657965   -2.2526330 
O    -0.1121738   -0.6075651   -1.3103098 
C     0.1761670    0.6597321   -0.7421381 
H    -0.3846770    1.4701122   -1.2254929 
H     1.2467912    0.8779795   -0.8567942 
C    -0.1761671    0.6597321    0.7421381 
H     0.3846768    1.4701122    1.2254929 
H    -1.2467913    0.8779794    0.8567941 
O     0.1121737   -0.6075650    1.3103098 
H    -0.0792249   -0.5657971    2.2526325 
