10
Energy = -230.2169588653
H     0.0350956   -0.5706541   -2.2479125 
O    -0.0856720   -0.6204184   -1.2942657 
C     0.1339920    0.6729478   -0.7550246 
H    -0.5116941    1.4292033   -1.2187393 
H     1.1760011    0.9702801   -0.9348762 
C    -0.1339920    0.6729478    0.7550246 
H     0.5116941    1.4292033    1.2187393 
H    -1.1760011    0.9702801    0.9348762 
O     0.0856720   -0.6204184    1.2942657 
H    -0.0350956   -0.5706541    2.2479125 
