10
Energy = -230.2256754641
H     0.4242434   -0.6697475   -2.2210255 
O    -0.2014109   -0.4606243   -1.5205913 
C     0.3744492    0.5170032   -0.6572389 
H     0.2998422    1.5132104   -1.1129503 
H     1.4305348    0.3072729   -0.4562659 
C    -0.3744488    0.5170035    0.6572391 
H    -0.2998411    1.5132107    1.1129503 
H    -1.4305346    0.3072739    0.4562661 
O     0.2014107   -0.4606244    1.5205914 
H    -0.4242424   -0.6697445    2.2210276 
