10
Energy = -230.2123597384
H     0.0000278   -0.5867877   -2.2384372 
O     0.0000000   -0.6365961   -1.2770497 
C    -0.0000002    0.6900395   -0.7747383 
H    -0.8838513    1.2344183   -1.1294883 
H     0.8838499    1.2344191   -1.1294888 
C     0.0000009    0.6900395    0.7747383 
H     0.8838516    1.2344190    1.1294881 
H    -0.8838496    1.2344184    1.1294890 
O     0.0000019   -0.6365961    1.2770497 
H    -0.0000135   -0.5867877    2.2384372 
