10
Energy = -229.0250249796
H     0.3936239   -0.1829614   -2.4751567 
O    -0.1997163   -0.2488847   -1.7178748 
C     0.4872647    0.2709112   -0.5830062 
H     0.8692498    1.2764874   -0.7828058 
H     1.3288261   -0.3713276   -0.3055231 
C    -0.4872641    0.2709121    0.5830061 
H    -0.8692472    1.2764891    0.7828058 
H    -1.3288269   -0.3713249    0.3055229 
O     0.1997157   -0.2488851    1.7178747 
H    -0.3936271   -0.1829674    2.4751551 
