10
Energy = -229.0277208469
H     0.4071599   -0.0232357   -2.4986580 
O    -0.1960619   -0.1545598   -1.7584431 
C     0.5069299    0.1631171   -0.5621467 
H     1.0091906    1.1322679   -0.6357605 
H     1.2581745   -0.5993715   -0.3319556 
C    -0.5069298    0.1631171    0.5621466 
H    -1.0091905    1.1322679    0.6357604 
H    -1.2581744   -0.5993715    0.3319556 
O     0.1960618   -0.1545598    1.7584431 
H    -0.4071601   -0.0232362    2.4986579 
