10
Energy = -230.2123597384
H     0.0000278   -0.5867877   -2.2384372 
O     0.0000000   -0.6365961   -1.2770497 
C    -0.0000002    0.6900395   -0.7747383 
H    -0.8838513    1.2344183   -1.1294883 
H     0.8838499    1.2344191   -1.1294888 
C     0.0000009    0.6900395    0.7747383 
H     0.8838516    1.2344190    1.1294881 
H    -0.8838496    1.2344184    1.1294890 
O     0.0000019   -0.6365961    1.2770497 
H    -0.0000135   -0.5867877    2.2384372 
10
Energy = -230.2124263218
H    -0.0008314   -0.5865007   -2.2385758 
O    -0.0096451   -0.6363992   -1.2772348 
C     0.0152136    0.6898268   -0.7744667 
H    -0.8448668    1.2608348   -1.1451189 
H     0.9217759    1.2071174   -1.1124327 
C    -0.0152136    0.6898268    0.7744667 
H     0.8448668    1.2608348    1.1451189 
H    -0.9217759    1.2071173    1.1124327 
O     0.0096453   -0.6363992    1.2772348 
H     0.0008331   -0.5865007    2.2385758 
10
Energy = -230.2126244314
H    -0.0019328   -0.5856279   -2.2389989 
O    -0.0192886   -0.6358111   -1.2777950 
C     0.0303973    0.6891879   -0.7736542 
H    -0.8049613    1.2862486   -1.1592841 
H     0.9585134    1.1790459   -1.0940240 
C    -0.0303973    0.6891879    0.7736542 
H     0.8049613    1.2862485    1.1592841 
H    -0.9585134    1.1790460    1.0940240 
O     0.0192886   -0.6358111    1.2777950 
H     0.0019341   -0.5856279    2.2389989 
10
Energy = -230.2129492307
H    -0.0016921   -0.5842389   -2.2396891 
O    -0.0289253   -0.6348252   -1.2787444 
C     0.0455234    0.6881274   -0.7723177 
H    -0.7642858    1.3105537   -1.1719801 
H     0.9939533    1.1503378   -1.0743204 
C    -0.0455233    0.6881274    0.7723177 
H     0.7642859    1.3105537    1.1719800 
H    -0.9939533    1.1503378    1.0743204 
O     0.0289253   -0.6348252    1.2787444 
H     0.0016942   -0.5842387    2.2396891 
10
Energy = -230.2133929192
H    -0.0000567   -0.5824153   -2.2406282 
O    -0.0385474   -0.6334410   -1.2801039 
C     0.0605665    0.6866445   -0.7704813 
H    -0.7229884    1.3336570   -1.1832112 
H     1.0280069    1.1211055   -1.0534226 
C    -0.0605664    0.6866445    0.7704813 
H     0.7229884    1.3336570    1.1832111 
H    -1.0280069    1.1211055    1.0534226 
O     0.0385474   -0.6334410    1.2801040 
H     0.0000583   -0.5824151    2.2406282 
10
Energy = -230.2139450385
H     0.0032173   -0.5802579   -2.2417925 
O    -0.0481384   -0.6316545   -1.2819048 
C     0.0755070    0.6847401   -0.7681764 
H    -0.6812103    1.3554844   -1.1930017 
H     1.0606110    1.0914550   -1.0314355 
C    -0.0755070    0.6847401    0.7681764 
H     0.6812104    1.3554844    1.1930017 
H    -1.0606110    1.0914550    1.0314355 
O     0.0481384   -0.6316545    1.2819048 
H    -0.0032165   -0.5802578    2.2417925 
10
Energy = -230.2145928573
H     0.0082982   -0.5778821   -2.2431458 
O    -0.0576730   -0.6294626   -1.2841794 
C     0.0903319    0.6824167   -0.7654390 
H    -0.6390791    1.3759804   -1.2013962 
H     1.0917276    1.0614779   -1.0084695 
C    -0.0903319    0.6824167    0.7654390 
H     0.6390792    1.3759804    1.2013962 
H    -1.0917276    1.0614779    1.0084695 
O     0.0576730   -0.6294626    1.2841794 
H    -0.0082974   -0.5778820    2.2431458 
10
Energy = -230.2153218274
H     0.0153111   -0.5754136   -2.2446460 
O    -0.0671267   -0.6268617   -1.2869675 
C     0.1050278    0.6796760   -0.7623080 
H    -0.5967146    1.3951088   -1.2084459 
H     1.1213336    1.0312518   -0.9846412 
C    -0.1050278    0.6796760    0.7623080 
H     0.5967146    1.3951088    1.2084459 
H    -1.1213335    1.0312518    0.9846412 
O     0.0671267   -0.6268617    1.2869675 
H    -0.0153105   -0.5754135    2.2446461 
10
Energy = -230.2161160722
H     0.0242621   -0.5729705   -2.2462484 
O    -0.0764712   -0.6238482   -1.2903125 
C     0.1195837    0.6765193   -0.7588234 
H    -0.5542228    1.4128512   -1.2142067 
H     1.1494223    1.0008369   -0.9600703 
C    -0.1195837    0.6765193    0.7588234 
H     0.5542228    1.4128512    1.2142067 
H    -1.1494223    1.0008369    0.9600703 
O     0.0764712   -0.6238482    1.2903125 
H    -0.0242615   -0.5729704    2.2462484 
10
Energy = -230.2169588653
H     0.0350956   -0.5706541   -2.2479125 
O    -0.0856720   -0.6204184   -1.2942657 
C     0.1339920    0.6729478   -0.7550246 
H    -0.5116941    1.4292033   -1.2187393 
H     1.1760011    0.9702801   -0.9348762 
C    -0.1339920    0.6729478    0.7550246 
H     0.5116941    1.4292033    1.2187393 
H    -1.1760011    0.9702801    0.9348762 
O     0.0856720   -0.6204184    1.2942657 
H    -0.0350956   -0.5706541    2.2479125 
10
Energy = -230.2178331067
H     0.0479681   -0.5686128   -2.2495699 
O    -0.0947043   -0.6165652   -1.2988859 
C     0.1482367    0.6689600   -0.7509521 
H    -0.4692146    1.4441800   -1.2220956 
H     1.2010778    0.9396117   -0.9091820 
C    -0.1482368    0.6689600    0.7509520 
H     0.4692145    1.4441800    1.2220956 
H    -1.2010778    0.9396117    0.9091820 
O     0.0947043   -0.6165652    1.2988859 
H    -0.0479694   -0.5686131    2.2495697 
10
Energy = -230.2187218327
H     0.0625721   -0.5669180   -2.2511895 
O    -0.1035287   -0.6122872   -1.3042172 
C     0.1623114    0.6645522   -0.7466415 
H    -0.4268378    1.4578010   -1.2243373 
H     1.2246812    0.9088406   -0.8830973 
C    -0.1623116    0.6645522    0.7466414 
H     0.4268377    1.4578009    1.2243374 
H    -1.2246814    0.9088407    0.8830973 
O     0.1035284   -0.6122873    1.3042171 
H    -0.0625736   -0.5669184    2.2511892 
10
Energy = -230.2196087209
H     0.0792227   -0.5657965   -2.2526330 
O    -0.1121738   -0.6075651   -1.3103098 
C     0.1761670    0.6597321   -0.7421381 
H    -0.3846770    1.4701122   -1.2254929 
H     1.2467912    0.8779795   -0.8567942 
C    -0.1761671    0.6597321    0.7421381 
H     0.3846768    1.4701122    1.2254929 
H    -1.2467913    0.8779794    0.8567941 
O     0.1121737   -0.6075650    1.3103098 
H    -0.0792249   -0.5657971    2.2526325 
10
Energy = -230.2204784923
H     0.0979239   -0.5654308   -2.2537804 
O    -0.1205712   -0.6023983   -1.3171978 
C     0.1898120    0.6544928   -0.7374713 
H    -0.3427298    1.4811482   -1.2256300 
H     1.2674649    0.8470082   -0.8303474 
C    -0.1898123    0.6544929    0.7374712 
H     0.3427294    1.4811483    1.2256299 
H    -1.2674652    0.8470081    0.8303471 
O     0.1205710   -0.6023982    1.3171978 
H    -0.0979310   -0.5654331    2.2537788 
10
Energy = -230.2213172063
H     0.1185099   -0.5659985   -2.2545023 
O    -0.1287294   -0.5967762   -1.3249005 
C     0.2032124    0.6488415   -0.7326782 
H    -0.3010554    1.4909606   -1.2247855 
H     1.2867116    0.8159087   -0.8039025 
C    -0.2032125    0.6488415    0.7326782 
H     0.3010550    1.4909607    1.2247855 
H    -1.2867118    0.8159084    0.8039023 
O     0.1287296   -0.5967761    1.3249005 
H    -0.1185149   -0.5660004    2.2545010 
10
Energy = -230.2221125198
H     0.1411535   -0.5678150   -2.2545558 
O    -0.1366265   -0.5906871   -1.3334236 
C     0.2163540    0.6427894   -0.7277898 
H    -0.2596653    1.4996047   -1.2230078 
H     1.3045628    0.7846572   -0.7775696 
C    -0.2163544    0.6427893    0.7277897 
H     0.2596651    1.4996045    1.2230079 
H    -1.3045632    0.7846573    0.7775695 
O     0.1366260   -0.5906873    1.3334233 
H    -0.1411558   -0.5678160    2.2545551 
10
Energy = -230.2228539269
H     0.1656151   -0.5710921   -2.2537644 
O    -0.1442283   -0.5841347   -1.3427599 
C     0.2292318    0.6363379   -0.7228297 
H    -0.2185454    1.5071189   -1.2203532 
H     1.3210663    0.7532055   -0.7514259 
C    -0.2292320    0.6363384    0.7228291 
H     0.2185451    1.5071199    1.2203520 
H    -1.3210665    0.7532058    0.7514252 
O     0.1442284   -0.5841336    1.3427602 
H    -0.1656168   -0.5710912    2.2537640 
10
Energy = -230.2235329127
H     0.1919698   -0.5762180   -2.2518001 
O    -0.1515486   -0.5770935   -1.3528989 
C     0.2418163    0.6295162   -0.7178295 
H    -0.1777124    1.5135768   -1.2168493 
H     1.3362336    0.7215357   -0.7256058 
C    -0.2418165    0.6295162    0.7178294 
H     0.1777120    1.5135768    1.2168493 
H    -1.3362338    0.7215355    0.7256056 
O     0.1515486   -0.5770935    1.3528988 
H    -0.1919731   -0.5762197    2.2517988 
10
Energy = -230.2241429836
H     0.2201828   -0.5836556   -2.2482772 
O    -0.1585753   -0.5695655   -1.3638051 
C     0.2540994    0.6223368   -0.7128120 
H    -0.1371321    1.5190125   -1.2125640 
H     1.3501019    0.6895944   -0.7001830 
C    -0.2540996    0.6223367    0.7128120 
H     0.1371319    1.5190124    1.2125640 
H    -1.3501021    0.6895943    0.7001829 
O     0.1585751   -0.5695656    1.3638049 
H    -0.2201842   -0.5836565    2.2482765 
10
Energy = -230.2246795858
H     0.2498659   -0.5937012   -2.2428976 
O    -0.1652666   -0.5615448   -1.3754384 
C     0.2660922    0.6148207   -0.7077897 
H    -0.0967532    1.5234649   -1.2075411 
H     1.3627199    0.6573399   -0.6752042 
C    -0.2660923    0.6148207    0.7077897 
H     0.0967530    1.5234649    1.2075411 
H    -1.3627199    0.6573398    0.6752041 
O     0.1652666   -0.5615448    1.3754384 
H    -0.2498671   -0.5937020    2.2428969 
10
Energy = -230.2251398214
H     0.2807434   -0.6068209   -2.2352226 
O    -0.1716172   -0.5530157   -1.3877430 
C     0.2777920    0.6070032   -0.7027778 
H    -0.0565432    1.5269728   -1.2018343 
H     1.3741154    0.6247434   -0.6507383 
C    -0.2777920    0.6070032    0.7027778 
H     0.0565431    1.5269729    1.2018343 
H    -1.3741154    0.6247433    0.6507382 
O     0.1716172   -0.5530157    1.3877430 
H    -0.2807439   -0.6068213    2.2352223 
10
Energy = -230.2255218874
H     0.3121660   -0.6232196   -2.2250044 
O    -0.1775632   -0.5439798   -1.4006816 
C     0.2892240    0.5988982   -0.6977785 
H    -0.0164503    1.5295460   -1.1954794 
H     1.3843370    0.5917760   -0.6268083 
C    -0.2892240    0.5988982    0.6977785 
H     0.0164504    1.5295460    1.1954794 
H    -1.3843370    0.5917760    0.6268083 
O     0.1775632   -0.5439798    1.4006816 
H    -0.3121659   -0.6232194    2.2250045 
10
Energy = -230.2258244328
H     0.3427305   -0.6422950   -2.2126574 
O    -0.1829876   -0.5344622   -1.4142363 
C     0.3004341    0.5904911   -0.6927805 
H     0.0235489    1.5311659   -1.1884650 
H     1.3934519    0.5584260   -0.6034188 
C    -0.3004340    0.5904911    0.6927806 
H    -0.0235486    1.5311659    1.1884650 
H    -1.3934518    0.5584262    0.6034188 
O     0.1829876   -0.5344622    1.4142363 
H    -0.3427296   -0.6422941    2.2126582 
10
Energy = -230.2260459680
H     0.3706131   -0.6625231   -2.1994280 
O    -0.1877510   -0.5245245   -1.4283677 
C     0.3114805    0.5817297   -0.6877592 
H     0.0634616    1.5317899   -1.1807316 
H     1.4015433    0.5246650   -0.5805461 
C    -0.3114804    0.5817297    0.6877593 
H    -0.0634612    1.5317899    1.1807317 
H    -1.4015432    0.5246654    0.5805462 
O     0.1877509   -0.5245245    1.4283677 
H    -0.3706116   -0.6625213    2.1994295 
10
Energy = -230.2261845343
H     0.3935470   -0.6808637   -2.1879750 
O    -0.1917276   -0.5142609   -1.4430301 
C     0.3224067    0.5725130   -0.6826923 
H     0.1032558    1.5313721   -1.1721355 
H     1.4086919    0.4904166   -0.5581760 
C    -0.3224065    0.5725132    0.6826924 
H    -0.1032553    1.5313721    1.1721356 
H    -1.4086917    0.4904171    0.5581762 
O     0.1917274   -0.5142611    1.4430301 
H    -0.3935453   -0.6808614    2.1879770 
10
Energy = -230.2262385191
H     0.4097678   -0.6934316   -2.1818001 
O    -0.1948541   -0.5038047   -1.4581371 
C     0.3332303    0.5626961   -0.6775704 
H     0.1429000    1.5298660   -1.1624876 
H     1.4149592    0.4555231   -0.5363169 
C    -0.3332300    0.5626963    0.6775705 
H    -0.1428992    1.5298661    1.1624877 
H    -1.4149590    0.4555238    0.5363171 
O     0.1948538   -0.5038049    1.4581370 
H    -0.4097660   -0.6934286    2.1818026 
10
Energy = -230.2262085725
H     0.4192489   -0.6977417   -2.1830668 
O    -0.1972173   -0.4932402   -1.4735460 
C     0.3439167    0.5521975   -0.6724146 
H     0.1823905    1.5272685   -1.1516841 
H     1.4203409    0.4198112   -0.5150442 
C    -0.3439164    0.5521977    0.6724148 
H    -0.1823896    1.5272686    1.1516842 
H    -1.4203407    0.4198121    0.5150444 
O     0.1972170   -0.4932404    1.4735460 
H    -0.4192471   -0.6977383    2.1830696 
10
Energy = -230.2260990156
H     0.4238495   -0.6944467   -2.1909811 
O    -0.1989965   -0.4825565   -1.4891512 
C     0.3543877    0.5410359   -0.6672788 
H     0.2217177    1.5236047   -1.1397698 
H     1.4247686    0.3831984   -0.4945150 
C    -0.3543873    0.5410362    0.6672790 
H    -0.2217165    1.5236049    1.1397699 
H    -1.4247683    0.3831995    0.4945152 
O     0.1989962   -0.4825567    1.4891512 
H    -0.4238479   -0.6944429    2.1909840 
10
Energy = -230.2259177693
H     0.4250084   -0.6844845   -2.2042975 
O    -0.2003588   -0.4716995   -1.5048566 
C     0.3645778    0.5292832   -0.6622098 
H     0.2608666    1.5189160   -1.1268245 
H     1.4281810    0.3456771   -0.4748861 
C    -0.3645775    0.5292835    0.6622100 
H    -0.2608655    1.5189163    1.1268246 
H    -1.4281807    0.3456781    0.4748864 
O     0.2003586   -0.4716996    1.5048566 
H    -0.4250072   -0.6844814    2.2042999 
10
Energy = -230.2256754641
H     0.4242434   -0.6697475   -2.2210255 
O    -0.2014109   -0.4606243   -1.5205913 
C     0.3744492    0.5170032   -0.6572389 
H     0.2998422    1.5132104   -1.1129503 
H     1.4305348    0.3072729   -0.4562659 
C    -0.3744488    0.5170035    0.6572391 
H    -0.2998411    1.5132107    1.1129503 
H    -1.4305346    0.3072739    0.4562661 
O     0.2014107   -0.4606244    1.5205914 
H    -0.4242424   -0.6697445    2.2210276 
10
Energy = -230.2253845755
H     0.4222920   -0.6512417   -2.2399816 
O    -0.2022193   -0.4493081   -1.5362730 
C     0.3839889    0.5042431   -0.6523771 
H     0.3386572    1.5064853   -1.0982064 
H     1.4318103    0.2680098   -0.4387133 
C    -0.3839886    0.5042433    0.6523772 
H    -0.3386565    1.5064855    1.0982065 
H    -1.4318101    0.2680105    0.4387134 
O     0.2022191   -0.4493081    1.5362730 
H    -0.4222915   -0.6512399    2.2399829 
10
Energy = -230.2250587796
H     0.4195834   -0.6296131   -2.2603498 
O    -0.2028258   -0.4377401   -1.5518296 
C     0.3931920    0.4910355   -0.6476259 
H     0.3773143    1.4987291   -1.0826237 
H     1.4319970    0.2279214   -0.4222693 
C    -0.3931919    0.4910356    0.6476260 
H    -0.3773138    1.4987293    1.0826237 
H    -1.4319969    0.2279218    0.4222694 
O     0.2028257   -0.4377402    1.5518296 
H    -0.4195831   -0.6296120    2.2603505 
10
Energy = -230.2247124800
H     0.4164012   -0.6053546   -2.2815022 
O    -0.2032611   -0.4259108   -1.5671978 
C     0.4020547    0.4774094   -0.6429821 
H     0.4157996    1.4899289   -1.0662206 
H     1.4310881    0.1870563   -0.4069627 
C    -0.4020546    0.4774095    0.6429822 
H    -0.4157993    1.4899290    1.0662206 
H    -1.4310880    0.1870566    0.4069628 
O     0.2032610   -0.4259108    1.5671978 
H    -0.4164010   -0.6053539    2.2815027 
10
Energy = -230.2243603936
H     0.4129505   -0.5788884   -2.3029306 
O    -0.2035467   -0.4138140   -1.5823186 
C     0.4105744    0.4633885   -0.6384385 
H     0.4540797    1.4800677   -1.0490070 
H     1.4290814    0.1454761   -0.3928156 
C    -0.4105743    0.4633886    0.6384386 
H    -0.4540794    1.4800678    1.0490070 
H    -1.4290814    0.1454764    0.3928156 
O     0.2035467   -0.4138140    1.5823186 
H    -0.4129504   -0.5788878    2.3029309 
10
Energy = -230.2240170753
H     0.4093839   -0.5505912   -2.3242157 
O    -0.2036984   -0.4014464   -1.5971304 
C     0.4187505    0.4489944   -0.6339826 
H     0.4921069    1.4691282   -1.0309904 
H     1.4259814    0.1032572   -0.3798372 
C    -0.4187504    0.4489946    0.6339827 
H    -0.4921066    1.4691283    1.0309904 
H    -1.4259814    0.1032575    0.3798373 
O     0.2036984   -0.4014464    1.5971304 
H    -0.4093838   -0.5505908    2.3242159 
10
Energy = -230.2236963992
H     0.4057884   -0.5207431   -2.3450462 
O    -0.2037301   -0.3888069   -1.6115682 
C     0.4265843    0.4342480   -0.6295984 
H     0.5298153    1.4570968   -1.0121779 
H     1.4218042    0.0604976   -0.3680313 
C    -0.4265842    0.4342480    0.6295984 
H    -0.5298151    1.4570969    1.0121779 
H    -1.4218042    0.0604978    0.3680313 
O     0.2037301   -0.3888069    1.6115682 
H    -0.4057884   -0.5207429    2.3450463 
10
Energy = -230.2234110320
H     0.4022341   -0.4895807   -2.3651784 
O    -0.2036488   -0.3759004   -1.6255782 
C     0.4340765    0.4191636   -0.6252697 
H     0.5671188    1.4439616   -0.9925793 
H     1.4165780    0.0173113   -0.3573986 
C    -0.4340765    0.4191636    0.6252697 
H    -0.5671189    1.4439616    0.9925793 
H    -1.4165780    0.0173113    0.3573986 
O     0.2036488   -0.3759004    1.6255782 
H    -0.4022341   -0.4895808    2.3651783 
10
Energy = -230.2231719884
H     0.3988071   -0.4573838   -2.3843874 
O    -0.2034593   -0.3627369   -1.6391162 
C     0.4412262    0.4037501   -0.6209819 
H     0.6039120    1.4297135   -0.9722122 
H     1.4103436   -0.0261757   -0.3479386 
C    -0.4412257    0.4037507    0.6209820 
H    -0.6039102    1.4297142    0.9722123 
H    -1.4103437   -0.0261739    0.3479387 
O     0.2034589   -0.3627372    1.6391162 
H    -0.3988075   -0.4573831    2.3843876 
10
Energy = -230.2229882423
H     0.3955000   -0.4241751   -2.4025926 
O    -0.2031711   -0.3493090   -1.6521546 
C     0.4480271    0.3880363   -0.6167274 
H     0.6400599    1.4143742   -0.9511089 
H     1.4031572   -0.0698057   -0.3396704 
C    -0.4480261    0.3880374    0.6167274 
H    -0.6400565    1.4143757    0.9511089 
H    -1.4031574   -0.0698023    0.3396705 
O     0.2031703   -0.3493094    1.6521546 
H    -0.3955008   -0.4241737    2.4025928 
10
Energy = -230.2228664351
H     0.3924359   -0.3903406   -2.4195899 
O    -0.2027888   -0.3356304   -1.6646663 
C     0.4544782    0.3720244   -0.6125013 
H     0.6754467    1.3979461   -0.9293145 
H     1.3950832   -0.1134519   -0.3325907 
C    -0.4544737    0.3720298    0.6125013 
H    -0.6754295    1.3979541    0.9293147 
H    -1.3950847   -0.1134347    0.3325904 
O     0.2027846   -0.3356333    1.6646661 
H    -0.3924414   -0.3903373    2.4195893 
10
Energy = -230.2228106959
H     0.3897002   -0.3561535   -2.4352551 
O    -0.2023189   -0.3217087   -1.6766262 
C     0.4605729    0.3557379   -0.6083020 
H     0.7099289    1.3804660   -0.9068900 
H     1.3862014   -0.1569555   -0.3267069 
C    -0.4605711    0.3557404    0.6083018 
H    -0.7099209    1.3804698    0.9068904 
H    -1.3862026   -0.1569472    0.3267063 
O     0.2023167   -0.3217109    1.6766256 
H    -0.3897029   -0.3561530    2.4352543 
10
Energy = -230.2228225372
H     0.3873628   -0.3218951   -2.4494974 
O    -0.2017753   -0.3075503   -1.6880072 
C     0.4663161    0.3391888   -0.6041306 
H     0.7434000    1.3619663   -0.8839061 
H     1.3766014   -0.2001923   -0.3220177 
C    -0.4663160    0.3391889    0.6041306 
H    -0.7433997    1.3619664    0.8839062 
H    -1.3766015   -0.2001919    0.3220176 
O     0.2017752   -0.3075505    1.6880071 
H    -0.3873630   -0.3218953    2.4494973 
10
Energy = -230.2229008537
H     0.3854838   -0.2878112   -2.4622681 
O    -0.2011737   -0.2931586   -1.6987891 
C     0.4717115    0.3223959   -0.5999941 
H     0.7757545    1.3424970   -0.8604443 
H     1.3663817   -0.2430342   -0.3185258 
C    -0.4717115    0.3223960    0.5999941 
H    -0.7757543    1.3424971    0.8604443 
H    -1.3663818   -0.2430339    0.3185258 
O     0.2011736   -0.2931587    1.6987891 
H    -0.3854840   -0.2878114    2.4622680 
10
Energy = -230.2230420663
H     0.3841501   -0.2542126   -2.4735265 
O    -0.2005305   -0.2785412   -1.7089562 
C     0.4767624    0.3053783   -0.5959040 
H     0.8068933    1.3221193   -0.8365943 
H     1.3556472   -0.2853605   -0.3162343 
C    -0.4767624    0.3053784    0.5959040 
H    -0.8068932    1.3221193    0.8365943 
H    -1.3556473   -0.2853605    0.3162342 
O     0.2005304   -0.2785413    1.7089562 
H    -0.3841502   -0.2542128    2.4735264 
10
Energy = -230.2232404262
H     0.3834916   -0.2215264   -2.4832426 
O    -0.1998596   -0.2637113   -1.7185016 
C     0.4814746    0.2881470   -0.5918768 
H     0.8367409    1.3008903   -0.8124503 
H     1.3445005   -0.3270805   -0.3151429 
C    -0.4814746    0.2881470    0.5918768 
H    -0.8367409    1.3008903    0.8124503 
H    -1.3445005   -0.3270805    0.3151429 
O     0.1998596   -0.2637112    1.7185016 
H    -0.3834916   -0.2215265    2.4832426 
10
Energy = -230.2234884295
H     0.3834962   -0.1898850   -2.4914962 
O    -0.1991882   -0.2486603   -1.7274212 
C     0.4858488    0.2707320   -0.5879390 
H     0.8652330    1.2788926   -0.7881128 
H     1.3330414   -0.3680993   -0.3152740 
C    -0.4858488    0.2707320    0.5879390 
H    -0.8652330    1.2788926    0.7881128 
H    -1.3330414   -0.3680993    0.3152740 
O     0.1991882   -0.2486603    1.7274212 
H    -0.3834962   -0.1898850    2.4914962 
10
Energy = -230.2237772339
H     0.3842397   -0.1596406   -2.4983321 
O    -0.1985322   -0.2333979   -1.7357115 
C     0.4898934    0.2531470   -0.5841139 
H     0.8923356    1.2561910   -0.7636795 
H     1.3213638   -0.4083575   -0.3166298 
C    -0.4898934    0.2531469    0.5841139 
H    -0.8923356    1.2561910    0.7636795 
H    -1.3213638   -0.4083575    0.3166298 
O     0.1985322   -0.2333980    1.7357115 
H    -0.3842397   -0.1596405    2.4983321 
10
Energy = -230.2240970472
H     0.3857368   -0.1310228   -2.5038447 
O    -0.1979078   -0.2179302   -1.7433723 
C     0.4936161    0.2354085   -0.5804274 
H     0.9180330    1.2328537   -0.7392454 
H     1.3095533   -0.4478069   -0.3192145 
C    -0.4936160    0.2354087    0.5804273 
H    -0.9180326    1.2328540    0.7392452 
H    -1.3095535   -0.4478064    0.3192143 
O     0.1979076   -0.2179303    1.7433722 
H    -0.3857370   -0.1310225    2.5038446 
10
Energy = -230.2244375264
H     0.3879849   -0.1042627   -2.5081423 
O    -0.1973357   -0.2022597   -1.7504064 
C     0.4970219    0.2175373   -0.5769074 
H     0.9423257    1.2089479   -0.7149030 
H     1.2976801   -0.4864114   -0.3230301 
C    -0.4970219    0.2175373    0.5769074 
H    -0.9423257    1.2089479    0.7149030 
H    -1.2976801   -0.4864114    0.3230301 
O     0.1973357   -0.2022597    1.7504064 
H    -0.3879849   -0.1042627    2.5081423 
10
Energy = -230.2247881870
H     0.3909840   -0.0796145   -2.5113431 
O    -0.1968289   -0.1863915   -1.7568247 
C     0.5001178    0.1995513   -0.5735819 
H     0.9652431    1.1845303   -0.6907429 
H     1.2857960   -0.5241557   -0.3280732 
C    -0.5001177    0.1995513    0.5735819 
H    -0.9652430    1.1845303    0.6907429 
H    -1.2857960   -0.5241556    0.3280732 
O     0.1968289   -0.1863915    1.7568247 
H    -0.3909841   -0.0796147    2.5113431 
10
Energy = -230.2251388528
H     0.3947344   -0.0574158   -2.5135706 
O    -0.1964008   -0.1703288   -1.7626410 
C     0.5029086    0.1814710   -0.5704794 
H     0.9868361    1.1596478   -0.6668560 
H     1.2739283   -0.5610410   -0.3343369 
C    -0.5029086    0.1814710    0.5704794 
H    -0.9868362    1.1596477    0.6668561 
H    -1.2739282   -0.5610410    0.3343369 
O     0.1964008   -0.1703288    1.7626410 
H    -0.3947344   -0.0574159    2.5135706 
10
Energy = -230.2254800486
H     0.3991754   -0.0379453   -2.5149691 
O    -0.1960637   -0.1540657   -1.7678661 
C     0.5053985    0.1633258   -0.5676270 
H     1.0071800    1.1343412   -0.6433271 
H     1.2620810   -0.5970764   -0.3418102 
C    -0.5053984    0.1633258    0.5676270 
H    -1.0071799    1.1343412    0.6433271 
H    -1.2620809   -0.5970764    0.3418101 
O     0.1960637   -0.1540657    1.7678661 
H    -0.3991755   -0.0379452    2.5149690 
10
Energy = -230.2258033006
H     0.4042152   -0.0215045   -2.5156836 
O    -0.1958229   -0.1376048   -1.7725054 
C     0.5075938    0.1451373   -0.5650456 
H     1.0263653    1.1086336   -0.6202366 
H     1.2502404   -0.6322870   -0.3504723 
C    -0.5075937    0.1451373    0.5650457 
H    -1.0263652    1.1086336    0.6202366 
H    -1.2502403   -0.6322870    0.3504722 
O     0.1958229   -0.1376048    1.7725054 
H    -0.4042154   -0.0215044    2.5156835 
10
Energy = -230.2261013161
H     0.4096991   -0.0083068   -2.5158678 
O    -0.1956750   -0.1209517   -1.7765652 
C     0.5095023    0.1269248   -0.5627520 
H     1.0444950    1.0825363   -0.5976554 
H     1.2383797   -0.6667042   -0.3602952 
C    -0.5095022    0.1269248    0.5627520 
H    -1.0444950    1.0825363    0.5976554 
H    -1.2383796   -0.6667041    0.3602951 
O     0.1956749   -0.1209516    1.7765653 
H    -0.4096993   -0.0083069    2.5158677 
10
Energy = -230.2263680860
H     0.4153939    0.0015973   -2.5156768 
O    -0.1956122   -0.1041118   -1.7800530 
C     0.5111312    0.1087085   -0.5607585 
H     1.0616786    1.0560528   -0.5756462 
H     1.2264619   -0.7003577   -0.3712468 
C    -0.5111312    0.1087086    0.5607585 
H    -1.0616785    1.0560529    0.5756462 
H    -1.2264619   -0.7003576    0.3712468 
O     0.1956122   -0.1041119    1.7800531 
H    -0.4153942    0.0015967    2.5156767 
10
Energy = -230.2265989478
H     0.4210192    0.0082523   -2.5152557 
O    -0.1956267   -0.0870916   -1.7829799 
C     0.5124856    0.0905089   -0.5590750 
H     1.0780225    1.0291810   -0.5542635 
H     1.2144419   -0.7332754   -0.3832961 
C    -0.5124855    0.0905090    0.5590749 
H    -1.0780220    1.0291814    0.5542634 
H    -1.2144421   -0.7332749    0.3832959 
O     0.1956266   -0.0870917    1.7829799 
H    -0.4210199    0.0082496    2.5152555 
10
Energy = -230.2267905402
H     0.4263176    0.0116973   -2.5147252 
O    -0.1956819   -0.0699144   -1.7853634 
C     0.5135785    0.0723297   -0.5577030 
H     1.0936504    1.0018923   -0.5335589 
H     1.2022634   -0.7655038   -0.3963856 
C    -0.5135784    0.0723299    0.5577030 
H    -1.0936499    1.0018927    0.5335588 
H    -1.2022637   -0.7655033    0.3963853 
O     0.1956818   -0.0699146    1.7853634 
H    -0.4263184    0.0116938    2.5147250 
10
Energy = -230.2269407117
H     0.4309422    0.0122324   -2.5141989 
O    -0.1957661   -0.0525849   -1.7872150 
C     0.5144139    0.0541930   -0.5566465 
H     1.1086601    0.9741765   -0.5135720 
H     1.1898723   -0.7970625   -0.4104823 
C    -0.5144137    0.0541936    0.5566463 
H    -1.1086585    0.9741781    0.5135719 
H    -1.1898735   -0.7970607    0.4104812 
O     0.1957658   -0.0525860    1.7872149 
H    -0.4309443    0.0122206    2.5141983 
10
Energy = -230.2270483133
H     0.4346053    0.0098748   -2.5137559 
O    -0.1958536   -0.0351388   -1.7885404 
C     0.5150005    0.0360917   -0.5558999 
H     1.1231628    0.9459839   -0.4943488 
H     1.1772021   -0.8280043   -0.4255228 
C    -0.5150004    0.0360923    0.5558998 
H    -1.1231612    0.9459855    0.4943492 
H    -1.1772033   -0.8280026    0.4255219 
O     0.1958535   -0.0351400    1.7885403 
H    -0.4346065    0.0098621    2.5137556 
10
Energy = -230.2271129078
H     0.4369711    0.0051739   -2.5134635 
O    -0.1959190   -0.0176106   -1.7893381 
C     0.5153478    0.0180173   -0.5554567 
H     1.1372327    0.9172818   -0.4759085 
H     1.1642141   -0.8583595   -0.4414663 
C    -0.5153475    0.0180182    0.5554567 
H    -1.1372303    0.9172843    0.4759092 
H    -1.1642161   -0.8583569    0.4414649 
O     0.1959188   -0.0176127    1.7893382 
H    -0.4369726    0.0051509    2.5134631 
10
Energy = -230.2271344350
H     0.4377693    0.0000012   -2.5133651 
O    -0.1959441    0.0000020   -1.7896050 
C     0.5154621   -0.0000037   -0.5553103 
H     1.1509074    0.8880887   -0.4582718 
H     1.1508977   -0.8881031   -0.4582760 
C    -0.5154620    0.0000005    0.5553106 
H    -1.1508983    0.8880997    0.4582757 
H    -1.1509065   -0.8880922    0.4582729 
O     0.1959443   -0.0000052    1.7896052 
H    -0.4377690   -0.0000913    2.5133652 
