10
Energy = -229.0298190920
H     0.4409971    0.0264028   -2.4966395 
O    -0.1957891   -0.0530997   -1.7777966 
C     0.5160217    0.0537900   -0.5509557 
H     1.1078014    0.9732865   -0.5050966 
H     1.1876545   -0.7978569   -0.4012293 
C    -0.5160216    0.0537910    0.5509555 
H    -1.1077987    0.9732892    0.5050971 
H    -1.1876567   -0.7978539    0.4012274 
O     0.1957887   -0.0531017    1.7777965 
H    -0.4410000    0.0263824    2.4966394 
