10
Energy = -230.2229008537
H     0.3854838   -0.2878112   -2.4622681 
O    -0.2011737   -0.2931586   -1.6987891 
C     0.4717115    0.3223959   -0.5999941 
H     0.7757545    1.3424970   -0.8604443 
H     1.3663817   -0.2430342   -0.3185258 
C    -0.4717115    0.3223960    0.5999941 
H    -0.7757543    1.3424971    0.8604443 
H    -1.3663818   -0.2430339    0.3185258 
O     0.2011736   -0.2931587    1.6987891 
H    -0.3854840   -0.2878114    2.4622680 
