10
Energy = -229.0273247830
H     0.4295148   -0.6614443   -2.2051663 
O    -0.2030655   -0.4614983   -1.5061162 
C     0.3772026    0.5180725   -0.6525059 
H     0.3070008    1.5103612   -1.1133063 
H     1.4293894    0.3032994   -0.4425097 
C    -0.3772022    0.5180730    0.6525061 
H    -0.3069995    1.5103616    1.1133064 
H    -1.4293892    0.3033006    0.4425101 
O     0.2030653   -0.4614984    1.5061162 
H    -0.4295132   -0.6614405    2.2051690 
