10
Energy = -230.2126244314
H    -0.0019328   -0.5856279   -2.2389989 
O    -0.0192886   -0.6358111   -1.2777950 
C     0.0303973    0.6891879   -0.7736542 
H    -0.8049613    1.2862486   -1.1592841 
H     0.9585134    1.1790459   -1.0940240 
C    -0.0303973    0.6891879    0.7736542 
H     0.8049613    1.2862485    1.1592841 
H    -0.9585134    1.1790460    1.0940240 
O     0.0192886   -0.6358111    1.2777950 
H     0.0019341   -0.5856279    2.2389989 
