10
Energy = -229.0279081505
H     0.4270370   -0.6845819   -2.1763625 
O    -0.2007846   -0.4836153   -1.4735891 
C     0.3573017    0.5422252   -0.6625839 
H     0.2292419    1.5208072   -1.1405604 
H     1.4242017    0.3790754   -0.4805384 
C    -0.3573013    0.5422253    0.6625840 
H    -0.2292399    1.5208067    1.1405612 
H    -1.4242017    0.3790773    0.4805383 
O     0.2007834   -0.4836170    1.4735878 
H    -0.4270324   -0.6845735    2.1763693 
