10
Energy = -230.2271344350
H     0.4377693    0.0000012   -2.5133651 
O    -0.1959441    0.0000020   -1.7896050 
C     0.5154621   -0.0000037   -0.5553103 
H     1.1509074    0.8880887   -0.4582718 
H     1.1508977   -0.8881031   -0.4582760 
C    -0.5154620    0.0000005    0.5553106 
H    -1.1508983    0.8880997    0.4582757 
H    -1.1509065   -0.8880922    0.4582729 
O     0.1959443   -0.0000052    1.7896052 
H    -0.4377690   -0.0000913    2.5133652 
