10
Energy = -230.2261939690
H     0.4115864   -0.0046383   -2.5158385 
O    -0.1956452   -0.1153586   -1.7777910 
C     0.5100760    0.1208523   -0.5620537 
H     1.0503227    1.0737515   -0.5902527 
H     1.2344154   -0.6780053   -0.3638222 
C    -0.5100759    0.1208523    0.5620537 
H    -1.0503227    1.0737515    0.5902527 
H    -1.2344154   -0.6780052    0.3638221 
O     0.1956452   -0.1153586    1.7777910 
H    -0.4115866   -0.0046385    2.5158384 
