10
Energy = -230.2231021753
H     0.3838603   -0.2432179   -2.4769308 
O    -0.2003077   -0.2736227   -1.7122076 
C     0.4783711    0.2996561   -0.5945532 
H     0.8169904    1.3151326   -0.8285740 
H     1.3519724   -0.2993406   -0.3157351 
C    -0.4783711    0.2996561    0.5945532 
H    -0.8169902    1.3151327    0.8285740 
H    -1.3519724   -0.2993404    0.3157351 
O     0.2003077   -0.2736228    1.7122076 
H    -0.3838604   -0.2432182    2.4769308 
