10
Energy = -230.2240970472
H     0.3857368   -0.1310228   -2.5038447 
O    -0.1979078   -0.2179302   -1.7433723 
C     0.4936161    0.2354085   -0.5804274 
H     0.9180330    1.2328537   -0.7392454 
H     1.3095533   -0.4478069   -0.3192145 
C    -0.4936160    0.2354087    0.5804273 
H    -0.9180326    1.2328540    0.7392452 
H    -1.3095535   -0.4478064    0.3192143 
O     0.1979076   -0.2179303    1.7433722 
H    -0.3857370   -0.1310225    2.5038446 
