10
Energy = -230.2230420663
H     0.3841501   -0.2542126   -2.4735265 
O    -0.2005305   -0.2785412   -1.7089562 
C     0.4767624    0.3053783   -0.5959040 
H     0.8068933    1.3221193   -0.8365943 
H     1.3556472   -0.2853605   -0.3162343 
C    -0.4767624    0.3053784    0.5959040 
H    -0.8068932    1.3221193    0.8365943 
H    -1.3556473   -0.2853605    0.3162342 
O     0.2005304   -0.2785413    1.7089562 
H    -0.3841502   -0.2542128    2.4735264 
