10
Energy = -230.2242442756
H     0.4117678   -0.5696402   -2.3100612 
O    -0.2036114   -0.4097217   -1.5872938 
C     0.4133378    0.4586308   -0.6369443 
H     0.4667864    1.4765417   -1.0430904 
H     1.4281690    0.1314696   -0.3883596 
C    -0.4133377    0.4586309    0.6369443 
H    -0.4667860    1.4765418    1.0430904 
H    -1.4281690    0.1314699    0.3883596 
O     0.2036113   -0.4097218    1.5872937 
H    -0.4117676   -0.5696395    2.3100617 
