10
Energy = -230.2187218327
H     0.0625721   -0.5669180   -2.2511895 
O    -0.1035287   -0.6122872   -1.3042172 
C     0.1623114    0.6645522   -0.7466415 
H    -0.4268378    1.4578010   -1.2243373 
H     1.2246812    0.9088406   -0.8830973 
C    -0.1623116    0.6645522    0.7466414 
H     0.4268377    1.4578009    1.2243374 
H    -1.2246814    0.9088407    0.8830973 
O     0.1035284   -0.6122873    1.3042171 
H    -0.0625736   -0.5669184    2.2511892 
