10
Energy = -229.0242147970
H     0.3963141   -0.2832081   -2.4453315 
O    -0.2019645   -0.2933333   -1.6889402 
C     0.4732069    0.3227367   -0.5952490 
H     0.7804270    1.3400099   -0.8564982 
H     1.3624738   -0.2464880   -0.3084754 
C    -0.4732057    0.3227386    0.5952488 
H    -0.7804210    1.3400131    0.8564983 
H    -1.3624752   -0.2464817    0.3084749 
O     0.2019630   -0.2933346    1.6889398 
H    -0.3963179   -0.2832124    2.4453293 
