10
Energy = -229.0253276659
H     0.4183333   -0.5456749   -2.3065475 
O    -0.2050062   -0.4019287   -1.5850467 
C     0.4209840    0.4497628   -0.6292656 
H     0.4982260    1.4663209   -1.0301221 
H     1.4235736    0.0995629   -0.3673917 
C    -0.4209840    0.4497628    0.6292656 
H    -0.4982259    1.4663209    1.0301221 
H    -1.4235736    0.0995630    0.3673917 
O     0.2050062   -0.4019287    1.5850467 
H    -0.4183333   -0.5456749    2.3065475 
