10
Energy = -229.0276472333
H     0.4293035   -0.6754092   -2.1890296 
O    -0.2020800   -0.4726704   -1.4898449 
C     0.3674175    0.5304076   -0.6574916 
H     0.2682188    1.5160826   -1.1273982 
H     1.4273231    0.3416202   -0.4609855 
C    -0.3674170    0.5304080    0.6574918 
H    -0.2682171    1.5160829    1.1273984 
H    -1.4273228    0.3416219    0.4609858 
O     0.2020795   -0.4726709    1.4898446 
H    -0.4293007   -0.6754032    2.1890343 
