10
Energy = -229.0281710547
H     0.4120438   -0.0054519   -2.4991993 
O    -0.1957621   -0.1381541   -1.7630738 
C     0.5091579    0.1448516   -0.5594856 
H     1.0279086    1.1066822   -0.6124084 
H     1.2465645   -0.6343590   -0.3406249 
C    -0.5091578    0.1448517    0.5594855 
H    -1.0279085    1.1066823    0.6124082 
H    -1.2465645   -0.6343589    0.3406248 
O     0.1957620   -0.1381541    1.7630738 
H    -0.4120443   -0.0054528    2.4991992 
