6
Energy = -229.0145921202
H    -0.4592768    1.0628212    -1.5344509
O    -0.480041    0.1007144    -1.5591491
C    0.5205084    -0.361286    -0.6594344
C    0.5378806    0.3535659    0.6729088
O    -0.4860396    -0.184258    1.5006069
H    -0.5821603    0.3952211    2.2629016
