6
Energy = -229.0105024979
H    -0.2446814    0.9512175    -1.8763767
O    -0.3427253    0.0042351    -1.7347175
C    0.4492362    -0.3428709    -0.6010054
C    0.205132    0.5491187    0.6159771
O    -0.2501723    -0.2792492    1.683882
H    -0.3858128    0.285863    2.4516508
