6
Energy = -229.0098622676
H    -1.0519213    0.7537862    -0.9208071
O    -0.5990302    0.0201891    -1.3504439
C    0.6815816    -0.0981202    -0.7580688
C    0.6888979    0.1121457    0.7642701
O    -0.6307537    -0.0826587    1.2636303
H    -0.5869001    0.0350928    2.2179257
