6
Energy = -229.0174430802
H    0.6023832    1.8555216    0.8105067
O    -0.0648075    1.8332498    0.1158441
C    0.0169974    0.553717    -0.5047684
C    0.0012526    -0.5635969    0.5175578
O    0.0862842    -1.7926827    -0.1943545
H    -0.0770517    -2.5032643    0.4332675
