6
Energy = -229.0155967492
H    -0.6724484    1.0283206    -1.3405104
O    -0.5343004    0.0833908    -1.4673323
C    0.5959701    -0.2867551    -0.6929571
C    0.5983515    0.2893562    0.7029529
O    -0.5558836    -0.1613034    1.3981201
H    -0.4971594    0.1753373    2.2979062
