6
Energy = -229.0147399462
H    -0.8164429    0.9668647    -1.1805728
O    -0.5557218    0.0728254    -1.4270784
C    0.6271135    -0.2426909    -0.7110396
C    0.6269717    0.2517521    0.7187735
O    -0.5821154    -0.1474135    1.3509408
H    -0.5049161    0.0841983    2.2819735
