6
Energy = -229.0131657337
H    -0.8641259    0.9417865    -1.1493238
O    -0.5738452    0.0563968    -1.3947905
C    0.6495419    -0.1981348    -0.7271784
C    0.6503242    0.2084937    0.736715
O    -0.6037247    -0.1271622    1.3163953
H    -0.528091    0.0369215    2.2618571
