6
Energy = -229.0121578167
H    0.1061483    1.8925294    0.9677037
O    -0.237543    1.7955761    0.0734571
C    0.273631    0.5750687    -0.4582693
C    0.1849528    -0.5883764    0.5226767
O    -0.2019159    -1.7439095    -0.217008
H    -0.1013476    -2.5063629    0.361912
