6
Energy = -229.0170196974
H    0.5267185    1.8825073    0.8408072
O    -0.0877361    1.8339954    0.100304
C    0.0768261    0.554353    -0.5042994
C    0.0231562    -0.5611083    0.5195878
O    -0.0400865    -1.7898254    -0.1956677
H    -0.0042287    -2.5033854    0.4488078
