6
Energy = -229.0093337307
H    -0.9923215    0.8370769    -1.0488084
O    -0.5964282    0.0140071    -1.3550884
C    0.6801499    -0.1001287    -0.7549123
C    0.6843909    0.1139878    0.7671496
O    -0.6327064    -0.0796353    1.2703512
H    -0.5782892    0.0123311    2.2270255
