6
Energy = -229.0112829681
H    -0.2356993    1.0746395    -1.6563289
O    -0.3999791    0.1268789    -1.657041
C    0.4090107    -0.4408287    -0.6295481
C    0.4779706    0.3885054    0.6440534
O    -0.4198995    -0.169429    1.5989307
H    -0.4545149    0.42781    2.3532937
