6
Energy = -229.0104032444
H    -0.093522    1.8306111    1.0042027
O    -0.284596    1.7712505    0.0629051
C    0.3395032    0.587931    -0.4327299
C    0.233215    -0.6018736    0.5191929
O    -0.2475381    -1.7159084    -0.2292591
H    -0.2097362    -2.4884882    0.3441008
