6
Energy = -229.0130657448
H    -0.8233829    0.9676524    -1.2146127
O    -0.5738083    0.0545311    -1.3952302
C    0.6484396    -0.1996443    -0.7260241
C    0.6490627    0.2084828    0.7377443
O    -0.6044469    -0.1249848    1.3187671
H    -0.5249611    0.0342264    2.264759
