6
Energy = -229.0147086743
H    -0.7259167    1.0113555    -1.3066885
O    -0.5565881    0.0702634    -1.4264806
C    0.6243554    -0.2462689    -0.7090667
C    0.625461    0.250948    0.7204662
O    -0.5833753    -0.1428108    1.3546574
H    -0.5000272    0.0837912    2.2863874
