6
Energy = -229.0086300972
H    -1.1198897    0.6571522    -0.9075724
O    -0.6045938    -0.0362084    -1.3336193
C    0.6920272    0.0033049    -0.769149
C    0.7037107    0.011851    0.7790494
O    -0.6435442    -0.0236255    1.2438542
H    -0.6092517    0.0620219    2.2017959
