6
Energy = -229.008719007
H    -1.0866412    0.7075552    -0.9104744
O    -0.6040725    -0.0069737    -1.3399746
C    0.689035    -0.0477736    -0.7662901
C    0.6985379    0.0622561    0.7743023
O    -0.63912    -0.0539455    1.2516251
H    -0.6014758    0.0461828    2.2081367
