6
Energy = -229.0166649117
H    0.436679    1.8348018    0.9021215
O    -0.0871428    1.8385627    0.0937632
C    0.0688428    0.5607929    -0.5181286
C    0.0664013    -0.5539012    0.506701
O    0.2263626    -1.7799371    -0.1962132
H    0.0879479    -2.4949775    0.4324193
