6
Energy = -229.0111601715
H    0.002893    1.91164    0.961382
O    -0.2924358    1.7675518    0.0563736
C    0.3480027    0.5874718    -0.4235289
C    0.2192489    -0.6018767    0.5263483
O    -0.2388614    -1.7172683    -0.2351838
H    -0.2295158    -2.4866123    0.3436194
