6
Energy = -229.0156421562
H    -0.6230539    1.04067    -1.4030309
O    -0.5352873    0.0832761    -1.4660147
C    0.594211    -0.288933    -0.6919763
C    0.5985857    0.2884352    0.7037909
O    -0.5563712    -0.1590937    1.3991168
H    -0.4995034    0.1828325    2.2970112
