6
Energy = -229.0128902349
H    -0.3942863    1.0683901    -1.5716378
O    -0.4430455    0.1082609    -1.6098955
C    0.475028    -0.3958242    -0.6442431
C    0.5028629    0.3798684    0.657979
O    -0.4512548    -0.1850157    1.550652
H    -0.5396558    0.4098879    2.3021991
