6
Energy = -229.015638208
H    -0.5181749    1.0566069    -1.4986172
O    -0.5109741    0.0935704    -1.5100452
C    0.5589592    -0.3266927    -0.675326
C    0.5704851    0.3216339    0.6887158
O    -0.5216007    -0.1755587    1.4496043
H    -0.565148    0.3357944    2.2636888
