6
Energy = -229.0158469981
H    0.4128471    1.9132364    0.876355
O    -0.1384133    1.8267372    0.0909723
C    0.1431424    0.5573687    -0.4922301
C    0.0763817    -0.5672495    0.5238493
O    -0.0986632    -1.7804538    -0.2011506
H    0.0342661    -2.5088392    0.4133323
