6
Energy = -229.0115628134
H    -0.1636762    1.0637943    -1.7073566
O    -0.4007972    0.1328434    -1.654832
C    0.4010093    -0.4471272    -0.6291142
C    0.4839594    0.3820242    0.6441236
O    -0.4213214    -0.162797    1.59983
H    -0.4544716    0.4402034    2.3496183
