6
Energy = -229.0083769969
H    -1.0613551    0.7524973    -0.9747745
O    -0.6023601    -0.0102423    -1.3425448
C    0.6885581    -0.0487616    -0.7644846
C    0.6961496    0.0636477    0.7760352
O    -0.6403218    -0.0525661    1.2547881
H    -0.597913    0.0297334    2.2128587
