6
Energy = -229.0110892305
H    -0.9127566    0.9092627    -1.1287014
O    -0.5869622    0.0357434    -1.3720624
C    0.6668594    -0.1505819    -0.7416867
C    0.66869    0.1624591    0.7538504
O    -0.6207654    -0.1039731    1.2911941
H    -0.553112    0.0132062    2.2442757
