6
Energy = -229.0118176204
H    -0.0971085    1.0449983    -1.7598015
O    -0.4017296    0.1385246    -1.6525398
C    0.3937319    -0.4525686    -0.6286434
C    0.489374    0.3762814    0.6442333
O    -0.4223351    -0.1569008    1.6006819
H    -0.4557153    0.4522612    2.3454162
