6
Energy = -229.0093543554
H    -1.1565458    0.5513478    -0.7874047
O    -0.6089962    -0.0289479    -1.3281325
C    0.6924238    0.0051286    -0.7731921
C    0.7085424    0.0078346    0.7749458
O    -0.6406464    -0.0259529    1.2386817
H    -0.614659    0.1135031    2.1903738
