6
Energy = -229.0132553637
H    -0.9041561    0.9098936    -1.0864914
O    -0.5740201    0.0586618    -1.3938737
C    0.6506969    -0.196797    -0.7282057
C    0.651861    0.2084807    0.7357756
O    -0.6031202    -0.1291389    1.3135103
H    -0.5321876    0.0405453    2.2583312
