6
Energy = -229.0154234653
H    -0.6244045    1.0388587    -1.3801711
O    -0.5078554    0.0924902    -1.5140281
C    0.5632499    -0.322065    -0.6768959
C    0.5682126    0.3243497    0.6872634
O    -0.5218951    -0.1789675    1.4477685
H    -0.5398883    0.3011114    2.2817712
