6
Energy = -229.0107531884
H    0.3251317    0.9586372    -1.8253521
O    -0.3016203    0.239937    -1.6960851
C    0.1814665    -0.5535372    -0.6147654
C    0.5475981    0.2503013    0.6301684
O    -0.4118771    -0.0372404    1.6447871
H    -0.2111621    0.521914    2.4025575
