6
Energy = -229.0131161159
H    -0.3306414    1.0666097    -1.6256291
O    -0.4447075    0.111253    -1.6076717
C    0.4705571    -0.4000204    -0.6437
C    0.5060932    0.3765723    0.6582046
O    -0.4517778    -0.181026    1.5515493
H    -0.5454102    0.4213391    2.2964252
