6
Energy = -229.01503803
H    0.3011399    1.8562295    0.9487751
O    -0.1313636    1.82969    0.0886253
C    0.1418775    0.5573801    -0.4942584
C    0.0807735    -0.5669497    0.5223154
O    -0.1033187    -1.7798978    -0.1999694
H    0.0546998    -2.5083887    0.4084278
