6
Energy = -229.0147324546
H    -0.7712405    0.9922513    -1.2424774
O    -0.5561095    0.0713303    -1.4269894
C    0.6257133    -0.2443981    -0.7101395
C    0.6260642    0.2513477    0.7195651
O    -0.5826752    -0.1451942    1.3530648
H    -0.5019881    0.0837044    2.2844717
