6
Energy = -229.014240136
H    0.2908842    1.9299961    0.9089329
O    -0.1898585    1.8135257    0.082314
C    0.208998    0.5644511    -0.4765702
C    0.1305542    -0.57665    0.5252476
O    -0.1511915    -1.7653547    -0.2084768
H    -0.0171507    -2.5117645    0.3839928
