6
Energy = -229.0090143994
H    -1.1395092    0.6066842    -0.8455914
O    -0.6066635    -0.0326759    -1.3309891
C    0.6922637    0.0042442    -0.7710899
C    0.7060936    0.0099483    0.7770462
O    -0.6421661    -0.0247744    1.2411337
H    -0.6118074    0.0855547    2.1965991
