6
Energy = -229.0104509426
H    0.2626502    1.0058117    -1.7764642
O    -0.3039592    0.2321837    -1.6982921
C    0.1939826    -0.5500993    -0.6151357
C    0.541903    0.2608777    0.6301573
O    -0.4122594    -0.0454812    1.6439483
H    -0.2176445    0.510995    2.4053061
