6
Energy = -229.0101639361
H    -0.2798313    0.9691451    -1.8312456
O    -0.3394184    0.0133478    -1.736756
C    0.4412304    -0.3544991    -0.6013013
C    0.2197618    0.5428016    0.6159718
O    -0.2587189    -0.2729792    1.683095
H    -0.3719241    0.2937727    2.453314
