6
Energy = -229.0097954515
H    -0.3151966    0.9835167    -1.7874611
O    -0.3358564    0.022944    -1.7387805
C    0.4325892    -0.366235    -0.6015792
C    0.234813    0.535912    0.6160592
O    -0.2673229    -0.2662563    1.6822808
H    -0.357852    0.3013264    2.4549052
