6
Energy = -229.0133179321
H    -0.2700774    1.0575231    -1.6812198
O    -0.4464119    0.1144143    -1.6053439
C    0.4662801    -0.403917    -0.6430995
C    0.5093076    0.3735038    0.6584733
O    -0.4521554    -0.1772456    1.5523871
H    -0.5518578    0.4328463    2.2900835
