6
Energy = -229.0170778614
H    0.57877    1.823202    0.8448405
O    -0.0366973    1.8376674    0.1038416
C    0.0128349    0.5530543    -0.5104567
C    -0.0207168    -0.5586876    0.5172566
O    0.0325247    -1.792807    -0.1883113
H    -0.1347357    -2.496843    0.4456623
