6
Energy = -229.0166393434
H    0.4726102    1.8555619    0.8841865
O    -0.0844569    1.8352489    0.0984615
C    0.077085    0.5543423    -0.5051417
C    0.0241235    -0.5607727    0.518984
O    -0.0422313    -1.7896011    -0.1952979
H    0.0096186    -2.5030733    0.4481976
