6
Energy = -229.0101215244
H    0.180213    1.048686    -1.7289166
O    -0.308756    0.2208743    -1.7004501
C    0.2133587    -0.5436816    -0.6154786
C    0.5326718    0.278011    0.6302082
O    -0.4117476    -0.05899    1.6430686
H    -0.2305193    0.4974341    2.407792
