6
Energy = -229.0138574038
H    0.2372176    1.8967398    0.9430416
O    -0.1863088    1.8150925    0.0818558
C    0.2078151    0.5645575    -0.4781511
C    0.1334454    -0.576483    0.5239856
O    -0.1537128    -1.7649712    -0.2075224
H    -0.008986    -2.5117997    0.3819139
