6
Energy = -229.0090379131
H    -1.1096524    0.6574214    -0.8494656
O    -0.6060414    -0.003455    -1.3370765
C    0.6894726    -0.0468597    -0.7682313
C    0.7010405    0.060699    0.7725049
O    -0.6378175    -0.0552389    1.2485533
H    -0.6055912    0.0670528    2.2026202
