6
Energy = -229.0147380139
H    -0.4030916    1.061253    -1.5925429
O    -0.4818643    0.1023864    -1.5567761
C    0.5176492    -0.3642458    -0.6586899
C    0.5399527    0.3517235    0.6733835
O    -0.486014    -0.1816938    1.5013963
H    -0.5936271    0.4089661    2.253408
