6
Energy = -229.0154625481
H    0.3585185    1.8835292    0.9150973
O    -0.1350009    1.828173    0.0896561
C    0.1427223    0.5573999    -0.4932805
C    0.0782936    -0.5670172    0.5230646
O    -0.1008885    -1.78017    -0.200558
H    0.0440061    -2.5085689    0.4112059
