6
Energy = -229.0162136599
H    0.4150226    1.8315119    0.9225087
O    -0.080918    1.8366246    0.0967838
C    0.0769213    0.554244    -0.5057877
C    0.0256108    -0.5606344    0.5185493
O    -0.0446195    -1.7893922    -0.195026
H    0.026175    -2.5028641    0.4466662
