6
Energy = -229.0155446198
H    -0.5705827    1.0511085    -1.4384576
O    -0.5093518    0.0928599    -1.5121845
C    0.5610705    -0.3244062    -0.6761669
C    0.569197    0.3229545    0.6879461
O    -0.5218002    -0.1771912    1.4487992
H    -0.5509273    0.3171724    2.2740312
