6
Energy = -229.0117475758
H    0.052282    1.8569366    0.9919863
O    -0.2336937    1.7972842    0.0747255
C    0.2709882    0.5752318    -0.4609029
C    0.1897619    -0.5883791    0.5204571
O    -0.2051345    -1.7433821    -0.2152858
H    -0.092634    -2.5068398    0.3601221
