6
Energy = -229.013437733
H    0.180933    1.8654338    0.9721443
O    -0.1825666    1.8167044    0.0817814
C    0.2062257    0.5646342    -0.4797551
C    0.1368959    -0.5764513    0.5226569
O    -0.1564237    -1.7645847    -0.206503
H    -0.000102    -2.5119261    0.3793212
