10
Energy = -230.2260990156
H     0.4238495   -0.6944467   -2.1909811 
O    -0.1989965   -0.4825565   -1.4891512 
C     0.3543877    0.5410359   -0.6672788 
H     0.2217177    1.5236047   -1.1397698 
H     1.4247686    0.3831984   -0.4945150 
C    -0.3543873    0.5410362    0.6672790 
H    -0.2217165    1.5236049    1.1397699 
H    -1.4247683    0.3831995    0.4945152 
O     0.1989962   -0.4825567    1.4891512 
H    -0.4238479   -0.6944429    2.1909840 
