6
Energy = -230.2229882423
H    0.3955    -0.4241751    -2.4025926
O    -0.2031711    -0.349309    -1.6521546
C    0.4480271    0.3880363    -0.6167274
C    -0.4480261    0.3880374    0.6167274
O    0.2031703    -0.3493094    1.6521546
H    -0.3955008    -0.4241737    2.4025928
