6
Energy = -230.2258244328
H    0.3427305    -0.642295    -2.2126574
O    -0.1829876    -0.5344622    -1.4142363
C    0.3004341    0.5904911    -0.6927805
C    -0.300434    0.5904911    0.6927806
O    0.1829876    -0.5344622    1.4142363
H    -0.3427296    -0.6422941    2.2126582
