6
Energy = -230.224788187
H    0.390984    -0.0796145    -2.5113431
O    -0.1968289    -0.1863915    -1.7568247
C    0.5001178    0.1995513    -0.5735819
C    -0.5001177    0.1995513    0.5735819
O    0.1968289    -0.1863915    1.7568247
H    -0.3909841    -0.0796147    2.5113431
