6
Energy = -230.2240970472
H    0.3857368    -0.1310228    -2.5038447
O    -0.1979078    -0.2179302    -1.7433723
C    0.4936161    0.2354085    -0.5804274
C    -0.493616    0.2354087    0.5804273
O    0.1979076    -0.2179303    1.7433722
H    -0.385737    -0.1310225    2.5038446
