6
Energy = -230.2255218874
H    0.312166    -0.6232196    -2.2250044
O    -0.1775632    -0.5439798    -1.4006816
C    0.289224    0.5988982    -0.6977785
C    -0.289224    0.5988982    0.6977785
O    0.1775632    -0.5439798    1.4006816
H    -0.3121659    -0.6232194    2.2250045
