6
Energy = -230.2145928573
H    0.0082982    -0.5778821    -2.2431458
O    -0.057673    -0.6294626    -1.2841794
C    0.0903319    0.6824167    -0.765439
C    -0.0903319    0.6824167    0.765439
O    0.057673    -0.6294626    1.2841794
H    -0.0082974    -0.577882    2.2431458
