6
Energy = -230.2253845755
H    0.422292    -0.6512417    -2.2399816
O    -0.2022193    -0.4493081    -1.536273
C    0.3839889    0.5042431    -0.6523771
C    -0.3839886    0.5042433    0.6523772
O    0.2022191    -0.4493081    1.536273
H    -0.4222915    -0.6512399    2.2399829
