6
Energy = -230.223411032
H    0.4022341    -0.4895807    -2.3651784
O    -0.2036488    -0.3759004    -1.6255782
C    0.4340765    0.4191636    -0.6252697
C    -0.4340765    0.4191636    0.6252697
O    0.2036488    -0.3759004    1.6255782
H    -0.4022341    -0.4895808    2.3651783
