6
Energy = -230.2228539269
H    0.1656151    -0.5710921    -2.2537644
O    -0.1442283    -0.5841347    -1.3427599
C    0.2292318    0.6363379    -0.7228297
C    -0.229232    0.6363384    0.7228291
O    0.1442284    -0.5841336    1.3427602
H    -0.1656168    -0.5710912    2.253764
