6
Energy = -230.2261845343
H    0.393547    -0.6808637    -2.187975
O    -0.1917276    -0.5142609    -1.4430301
C    0.3224067    0.572513    -0.6826923
C    -0.3224065    0.5725132    0.6826924
O    0.1917274    -0.5142611    1.4430301
H    -0.3935453    -0.6808614    2.187977
