6
Energy = -230.2254800486
H    0.3991754    -0.0379453    -2.5149691
O    -0.1960637    -0.1540657    -1.7678661
C    0.5053985    0.1633258    -0.567627
C    -0.5053984    0.1633258    0.567627
O    0.1960637    -0.1540657    1.7678661
H    -0.3991755    -0.0379452    2.514969
