6
Energy = -230.2267905402
H    0.4263176    0.0116973    -2.5147252
O    -0.1956819    -0.0699144    -1.7853634
C    0.5135785    0.0723297    -0.557703
C    -0.5135784    0.0723299    0.557703
O    0.1956818    -0.0699146    1.7853634
H    -0.4263184    0.0116938    2.514725
