6
Energy = -230.2250587796
H    0.4195834    -0.6296131    -2.2603498
O    -0.2028258    -0.4377401    -1.5518296
C    0.393192    0.4910355    -0.6476259
C    -0.3931919    0.4910356    0.647626
O    0.2028257    -0.4377402    1.5518296
H    -0.4195831    -0.629612    2.2603505
