6
Energy = -230.2251388528
H    0.3947344    -0.0574158    -2.5135706
O    -0.1964008    -0.1703288    -1.762641
C    0.5029086    0.181471    -0.5704794
C    -0.5029086    0.181471    0.5704794
O    0.1964008    -0.1703288    1.762641
H    -0.3947344    -0.0574159    2.5135706
