6
Energy = -230.2228225372
H    0.3873628    -0.3218951    -2.4494974
O    -0.2017753    -0.3075503    -1.6880072
C    0.4663161    0.3391888    -0.6041306
C    -0.466316    0.3391889    0.6041306
O    0.2017752    -0.3075505    1.6880071
H    -0.387363    -0.3218953    2.4494973
