6
Energy = -230.2244375264
H    0.3879849    -0.1042627    -2.5081423
O    -0.1973357    -0.2022597    -1.7504064
C    0.4970219    0.2175373    -0.5769074
C    -0.4970219    0.2175373    0.5769074
O    0.1973357    -0.2022597    1.7504064
H    -0.3879849    -0.1042627    2.5081423
