6
Energy = -230.226368086
H    0.4153939    0.0015973    -2.5156768
O    -0.1956122    -0.1041118    -1.780053
C    0.5111312    0.1087085    -0.5607585
C    -0.5111312    0.1087086    0.5607585
O    0.1956122    -0.1041119    1.7800531
H    -0.4153942    0.0015967    2.5156767
