6
Energy = -230.2232404262
H    0.3834916    -0.2215264    -2.4832426
O    -0.1998596    -0.2637113    -1.7185016
C    0.4814746    0.288147    -0.5918768
C    -0.4814746    0.288147    0.5918768
O    0.1998596    -0.2637112    1.7185016
H    -0.3834916    -0.2215265    2.4832426
