6
Energy = -230.2129492307
H    -0.0016921    -0.5842389    -2.2396891
O    -0.0289253    -0.6348252    -1.2787444
C    0.0455234    0.6881274    -0.7723177
C    -0.0455233    0.6881274    0.7723177
O    0.0289253    -0.6348252    1.2787444
H    0.0016942    -0.5842387    2.2396891
