6
Energy = -230.2169588653
H    0.0350956    -0.5706541    -2.2479125
O    -0.085672    -0.6204184    -1.2942657
C    0.133992    0.6729478    -0.7550246
C    -0.133992    0.6729478    0.7550246
O    0.085672    -0.6204184    1.2942657
H    -0.0350956    -0.5706541    2.2479125
