6
Energy = -230.2213172063
H    0.1185099    -0.5659985    -2.2545023
O    -0.1287294    -0.5967762    -1.3249005
C    0.2032124    0.6488415    -0.7326782
C    -0.2032125    0.6488415    0.7326782
O    0.1287296    -0.5967761    1.3249005
H    -0.1185149    -0.5660004    2.254501
