6
Energy = -230.2240170753
H    0.4093839    -0.5505912    -2.3242157
O    -0.2036984    -0.4014464    -1.5971304
C    0.4187505    0.4489944    -0.6339826
C    -0.4187504    0.4489946    0.6339827
O    0.2036984    -0.4014464    1.5971304
H    -0.4093838    -0.5505908    2.3242159
