6
Energy = -230.2187218327
H    0.0625721    -0.566918    -2.2511895
O    -0.1035287    -0.6122872    -1.3042172
C    0.1623114    0.6645522    -0.7466415
C    -0.1623116    0.6645522    0.7466414
O    0.1035284    -0.6122873    1.3042171
H    -0.0625736    -0.5669184    2.2511892
