6
Energy = -230.226045968
H    0.3706131    -0.6625231    -2.199428
O    -0.187751    -0.5245245    -1.4283677
C    0.3114805    0.5817297    -0.6877592
C    -0.3114804    0.5817297    0.6877593
O    0.1877509    -0.5245245    1.4283677
H    -0.3706116    -0.6625213    2.1994295
