6
Energy = -230.2124263218
H    -0.0008314    -0.5865007    -2.2385758
O    -0.0096451    -0.6363992    -1.2772348
C    0.0152136    0.6898268    -0.7744667
C    -0.0152136    0.6898268    0.7744667
O    0.0096453    -0.6363992    1.2772348
H    0.0008331    -0.5865007    2.2385758
