10
Energy = -230.2123893649
H    -0.0007508   -0.5866637   -2.2385073 
O    -0.0063283   -0.6365049   -1.2771390 
C     0.0102059    0.6899457   -0.7746175 
H    -0.8578782    1.2521349   -1.1401399 
H     0.9093482    1.2163072   -1.1182127 
C    -0.0102057    0.6899457    0.7746175 
H     0.8578782    1.2521352    1.1401398 
H    -0.9093481    1.2163070    1.1182128 
O     0.0063290   -0.6365049    1.2771390 
H     0.0007510   -0.5866637    2.2385073 
