10
Energy = -229.0267729929
H     0.3995592   -0.0676458   -2.4952460 
O    -0.1969788   -0.1867859   -1.7474064 
C     0.5015873    0.1994805   -0.5682820 
H     0.9680542    1.1822868   -0.6838074 
H     1.2816011   -0.5268428   -0.3182696 
C    -0.5015873    0.1994804    0.5682819 
H    -0.9680544    1.1822866    0.6838073 
H    -1.2816010   -0.5268431    0.3182695 
O     0.1969788   -0.1867858    1.7474064 
H    -0.3995592   -0.0676456    2.4952460 
