10
Energy = -229.0289735577
H     0.4234091    0.0196429   -2.4987661 
O    -0.1955034   -0.1047385   -1.7706212 
C     0.5127401    0.1082930   -0.5550900 
H     1.0622016    1.0544441   -0.5674276 
H     1.2233856   -0.7019232   -0.3615351 
C    -0.5127399    0.1082933    0.5550899 
H    -1.0622008    1.0544448    0.5674274 
H    -1.2233859   -0.7019223    0.3615346 
O     0.1955031   -0.1047390    1.7706212 
H    -0.4234113    0.0196355    2.4987656 
